      -----------------------------------------------------------      
     |                   =====================                   |     
     |                           x T B                           |     
     |                   =====================                   |     
     |                         S. Grimme                         |     
     |          Mulliken Center for Theoretical Chemistry        |     
     |                    University of Bonn                     |     
      -----------------------------------------------------------      

   * xtb version 6.7.1 (edcfbbe) compiled by 'albert@albert-system' on 2024-07-22

   xtb is free software: you can redistribute it and/or modify it under
   the terms of the GNU Lesser General Public License as published by
   the Free Software Foundation, either version 3 of the License, or
   (at your option) any later version.
   
   xtb is distributed in the hope that it will be useful,
   but WITHOUT ANY WARRANTY; without even the implied warranty of
   MERCHANTABILITY or FITNESS FOR A PARTICULAR PURPOSE.  See the
   GNU Lesser General Public License for more details.
   
   Cite this work as:
   * C. Bannwarth, E. Caldeweyher, S. Ehlert, A. Hansen, P. Pracht,
     J. Seibert, S. Spicher, S. Grimme, WIREs Comput. Mol. Sci., 2020, 11,
     e01493. DOI: 10.1002/wcms.1493
   
   for GFN2-xTB:
   * C. Bannwarth, S. Ehlert and S. Grimme., J. Chem. Theory Comput., 2019,
     15, 1652-1671. DOI: 10.1021/acs.jctc.8b01176
   for GFN1-xTB:
   * S. Grimme, C. Bannwarth, P. Shushkov, J. Chem. Theory Comput., 2017,
     13, 1989-2009. DOI: 10.1021/acs.jctc.7b00118
   for GFN0-xTB:
   * P. Pracht, E. Caldeweyher, S. Ehlert, S. Grimme, ChemRxiv, 2019, preprint.
     DOI: 10.26434/chemrxiv.8326202.v1
   for GFN-FF:
   * S. Spicher and S. Grimme, Angew. Chem. Int. Ed., 2020, 59, 15665-15673.
     DOI: 10.1002/anie.202004239
   
   for ALPB and GBSA implicit solvation:
   * S. Ehlert, M. Stahn, S. Spicher, S. Grimme, J. Chem. Theory Comput.,
     2021, 17, 4250-4261. DOI: 10.1021/acs.jctc.1c00471
   
   for ddCOSMO and CPCM-X implicit solvation:
   * M. Stahn, S. Ehlert, S. Grimme, J. Phys. Chem. A,
     2023, XX, XXXX-XXXX. DOI: 10.1021/acs.jpca.3c04382
   
   for DFT-D4:
   * E. Caldeweyher, C. Bannwarth and S. Grimme, J. Chem. Phys., 2017,
     147, 034112. DOI: 10.1063/1.4993215
   * E. Caldeweyher, S. Ehlert, A. Hansen, H. Neugebauer, S. Spicher,
     C. Bannwarth and S. Grimme, J. Chem. Phys., 2019, 150, 154122.
     DOI: 10.1063/1.5090222
   * E. Caldeweyher, J.-M. Mewes, S. Ehlert and S. Grimme, Phys. Chem. Chem. Phys.
     2020, 22, 8499-8512. DOI: 10.1039/D0CP00502A
   
   for sTDA-xTB:
   * S. Grimme and C. Bannwarth, J. Chem. Phys., 2016, 145, 054103.
     DOI: 10.1063/1.4959605
   
   in the mass-spec context:
   * V. Asgeirsson, C. Bauer and S. Grimme, Chem. Sci., 2017, 8, 4879.
     DOI: 10.1039/c7sc00601b
   * J. Koopman and S. Grimme, ACS Omega 2019, 4, 12, 15120-15133.
     DOI: 10.1021/acsomega.9b02011
   
   for metadynamics refer to:
   * S. Grimme, J. Chem. Theory Comput., 2019, 155, 2847-2862
     DOI: 10.1021/acs.jctc.9b00143
   
   for SPH calculations refer to:
   * S. Spicher and S. Grimme, J. Chem. Theory Comput., 2021, 17, 1701-1714
     DOI: 10.1021/acs.jctc.0c01306
   
   for ONIOM refer to:
   * C. Plett, A. Katbashev, S. Ehlert, S. Grimme, M. Bursch,
     Phys. Chem. Chem. Phys., 2023, 25, 17860-17868. DOI: 10.1039/D3CP02178E
   
   for DIPRO refer to:
   * J. Kohn, N. Gildemeister, S. Grimme, D. Fazzi, A. Hansen,
     J. Chem. Phys., 2023, just accepted.
   
   for PTB refer to:
   * S. Grimme, M. Mueller, A. Hansen, J. Chem. Phys., 2023, 158, 124111.
     DOI: 10.1063/5.0137838
   
   with help from (in alphabetical order)
   P. Atkinson, C. Bannwarth, F. Bohle, G. Brandenburg, E. Caldeweyher
   M. Checinski, S. Dohm, S. Ehlert, S. Ehrlich, I. Gerasimov, C. Hölzer
   A. Katbashev, J. Kohn, J. Koopman, C. Lavigne, S. Lehtola, F. März, M. Müller,
   F. Musil, H. Neugebauer, J. Pisarek, C. Plett, P. Pracht, F. Pultar,
   J. Seibert, P. Shushkov, S. Spicher, M. Stahn, M. Steiner, T. Strunk,
   J. Stückrath, T. Rose, and J. Unsleber
   
 * started run on 2024/12/07 at 05:51:08.087     
   ID    Z sym.   atoms
    1    6 C      1-6
    2    8 O      7-11, 16, 25, 28, 31, 34, 37, 40, 43
    3    1 H      12-15, 17-24, 26, 27, 29, 30, 32, 33, 35, 36, 38, 39, 41,
                  42, 44, 45

           -------------------------------------------------
          |                Calculation Setup                |
           -------------------------------------------------

          program call               : /home/ubuntu/software/xtb-dist/bin/xtb aa.xyz --opt
          coordinate file            : aa.xyz
          omp threads                :                     2


molecular fragmentation (1/2 indicates fragments):
111111111111111111111111222222222222222222222
# atoms in fragment 1/2:    24    21
 fragment masses (1/2) :      180.16      126.11
CMA distance (Bohr)    :   7.367
constraining FC (au)   :  0.0500

           -------------------------------------------------
          |                 G F N 2 - x T B                 |
           -------------------------------------------------

        Reference                      10.1021/acs.jctc.8b01176
      * Hamiltonian:
        H0-scaling (s, p, d)           1.850000    2.230000    2.230000
        zeta-weighting                 0.500000
      * Dispersion:
        s8                             2.700000
        a1                             0.520000
        a2                             5.000000
        s9                             5.000000
      * Repulsion:
        kExp                           1.500000    1.000000
        rExp                           1.000000
      * Coulomb:
        alpha                          2.000000
        third order                    shell-resolved
        anisotropic                    true
        a3                             3.000000
        a5                             4.000000
        cn-shift                       1.200000
        cn-exp                         4.000000
        max-rad                        5.000000


          ...................................................
          :                      SETUP                      :
          :.................................................:
          :  # basis functions                 102          :
          :  # atomic orbitals                 102          :
          :  # shells                           64          :
          :  # electrons                       128          :
          :  max. iterations                   250          :
          :  Hamiltonian                  GFN2-xTB          :
          :  restarted?                      false          :
          :  GBSA solvation                  false          :
          :  PC potential                    false          :
          :  electronic temp.          300.0000000     K    :
          :  accuracy                    1.0000000          :
          :  -> integral cutoff          0.2500000E+02      :
          :  -> integral neglect         0.1000000E-07      :
          :  -> SCF convergence          0.1000000E-05 Eh   :
          :  -> wf. convergence          0.1000000E-03 e    :
          :  Broyden damping             0.4000000          :
          :  net charge                          0          :
          :  unpaired electrons                  0          :
          ...................................................

 iter      E             dE          RMSdq      gap      omega  full diag
   1    -79.3900976 -0.793901E+02  0.448E+00    4.05       0.0  T
   2    -79.4244500 -0.343525E-01  0.250E+00    3.42       1.0  T
   3    -79.4187571  0.569295E-02  0.891E-01    3.81       1.0  T
   4    -79.4310434 -0.122863E-01  0.171E-01    3.48       1.0  T
   5    -79.4312942 -0.250831E-03  0.638E-02    3.56       1.0  T
   6    -79.4313195 -0.252583E-04  0.249E-02    3.55       1.0  T
   7    -79.4313213 -0.176234E-05  0.831E-03    3.55       1.8  T
   8    -79.4313219 -0.670826E-06  0.239E-03    3.55       6.2  T
   9    -79.4313220 -0.310134E-07  0.743E-04    3.55      20.1  T
  10    -79.4313220 -0.263024E-08  0.295E-04    3.55      50.6  T

   *** convergence criteria satisfied after 10 iterations ***

         #    Occupation            Energy/Eh            Energy/eV
      -------------------------------------------------------------
         1        2.0000           -0.7333926             -19.9566
       ...           ...                  ...                  ...
        58        2.0000           -0.4366392             -11.8816
        59        2.0000           -0.4346346             -11.8270
        60        2.0000           -0.4312697             -11.7354
        61        2.0000           -0.4241670             -11.5422
        62        2.0000           -0.4204810             -11.4419
        63        2.0000           -0.4155588             -11.3079
        64        2.0000           -0.3986579             -10.8480 (HOMO)
        65                         -0.2682836              -7.3004 (LUMO)
        66                         -0.0471785              -1.2838
        67                         -0.0234130              -0.6371
        68                         -0.0050365              -0.1370
        69                         -0.0002921              -0.0079
       ...                                ...                  ...
       102                          0.5806548              15.8004
      -------------------------------------------------------------
                  HL-Gap            0.1303743 Eh            3.5477 eV
             Fermi-level           -0.3334708 Eh           -9.0742 eV

 SCC (total)                   0 d,  0 h,  0 min,  0.049 sec
 SCC setup                      ...        0 min,  0.000 sec (  0.892%)
 Dispersion                     ...        0 min,  0.001 sec (  1.198%)
 classical contributions        ...        0 min,  0.000 sec (  0.323%)
 integral evaluation            ...        0 min,  0.005 sec ( 10.601%)
 iterations                     ...        0 min,  0.024 sec ( 49.007%)
 molecular gradient             ...        0 min,  0.016 sec ( 33.460%)
 printout                       ...        0 min,  0.002 sec (  4.429%)

         :::::::::::::::::::::::::::::::::::::::::::::::::::::
         ::                     SUMMARY                     ::
         :::::::::::::::::::::::::::::::::::::::::::::::::::::
         :: total energy             -78.858119958382 Eh    ::
         :: gradient norm              0.096803817608 Eh/a0 ::
         :: HOMO-LUMO gap              3.547666630663 eV    ::
         ::.................................................::
         :: SCC energy               -79.429776633519 Eh    ::
         :: -> isotropic ES            0.353289760508 Eh    ::
         :: -> anisotropic ES         -0.026953083435 Eh    ::
         :: -> anisotropic XC         -0.009442498438 Eh    ::
         :: -> dispersion             -0.033199182851 Eh    ::
         :: repulsion energy           0.571656675137 Eh    ::
         :: add. restraining           0.000000000000 Eh    ::
         :: total charge              -0.000000000000 e     ::
         :::::::::::::::::::::::::::::::::::::::::::::::::::::

      ----------------------------------------------------------- 
     |                   =====================                   |
     |                        A N C O P T                        |
     |                   =====================                   |
     |               Approximate Normal Coordinate               |
     |                Rational Function Optimizer                |
      ----------------------------------------------------------- 
      ----------------------------------------------------------- 
     |                   =====================                   |
     |                        A N C O P T                        |
     |                   =====================                   |
     |               Approximate Normal Coordinate               |
     |                Rational Function Optimizer                |
      ----------------------------------------------------------- 

          ...................................................
          :                      SETUP                      :
          :.................................................:
          :   optimization level            normal          :
          :   max. optcycles                   200          :
          :   ANC micro-cycles                  20          :
          :   degrees of freedom               129          :
          :.................................................:
          :   RF solver                   davidson          :
          :   write xtbopt.log                true          :
          :   linear?                        false          :
          :   energy convergence         0.5000000E-05 Eh   :
          :   grad. convergence          0.1000000E-02 Eh/α :
          :   maxmium RF displ.          1.0000000          :
          :   Hlow (freq-cutoff)         0.1000000E-01      :
          :   Hmax (freq-cutoff)         5.0000000          :
          :   S6 in model hess.         20.0000000          :
          ...................................................

generating ANC from exact Hessian ...
Using Lindh-Hessian (1995)
 Shifting diagonal of input Hessian by   1.044496604697053E-002
 Lowest  eigenvalues of input Hessian
    0.010000    0.000000    0.010341    0.000000    0.000000    0.000000
    0.000000    0.000000    0.010517    0.010599    0.010645    0.010843
    0.010915    0.011186    0.011302    0.011540    0.011762    0.012431
 Highest eigenvalues
    1.455412    1.498457    1.500928    1.518748    1.538438    2.152483
 

........................................................................
.............................. CYCLE    1 ..............................
........................................................................

 iter      E             dE          RMSdq      gap      omega  full diag
   1    -79.4313220 -0.794313E+02  0.937E-05    3.55       0.0  T
   2    -79.4313220 -0.604672E-10  0.501E-05    3.55     297.5  T
   3    -79.4313220 -0.619593E-11  0.228E-05    3.55     655.0  T
     SCC iter.                  ...        0 min,  0.008 sec
     gradient                   ...        0 min,  0.016 sec
 * total energy  :   -78.8581200 Eh     change       -0.1058510E-08 Eh
   gradient norm :     0.0967891 Eh/α   predicted     0.0000000E+00 (-100.00%)
   displ. norm   :     0.6195562 α      lambda       -0.3504792E-01
   maximum displ.:     0.2795092 α      in ANC's #30, #20, #25, ...

........................................................................
.............................. CYCLE    2 ..............................
........................................................................

 iter      E             dE          RMSdq      gap      omega  full diag
   1    -79.4424684 -0.794425E+02  0.233E-01    3.60       0.0  T
   2    -79.4426134 -0.144963E-03  0.136E-01    3.60       1.0  T
   3    -79.4426208 -0.749628E-05  0.350E-02    3.60       1.0  T
   4    -79.4426365 -0.156202E-04  0.107E-02    3.60       1.4  T
   5    -79.4426371 -0.663978E-06  0.334E-03    3.60       4.5  T
   6    -79.4426372 -0.592952E-07  0.150E-03    3.60      10.0  T
   7    -79.4426372 -0.996464E-08  0.509E-04    3.60      29.3  T
   8    -79.4426372 -0.198561E-08  0.228E-04    3.60      65.4  T
     SCC iter.                  ...        0 min,  0.017 sec
     gradient                   ...        0 min,  0.015 sec
 * total energy  :   -78.8807058 Eh     change       -0.2258583E-01 Eh
   gradient norm :     0.0343774 Eh/α   predicted    -0.2425324E-01 (   7.38%)
   displ. norm   :     0.5717518 α      lambda       -0.1176036E-01
   maximum displ.:     0.2317642 α      in ANC's #20, #30, #9, ...

........................................................................
.............................. CYCLE    3 ..............................
........................................................................

 iter      E             dE          RMSdq      gap      omega  full diag
   1    -79.4427378 -0.794427E+02  0.144E-01    3.60       0.0  T
   2    -79.4427770 -0.392335E-04  0.863E-02    3.60       1.0  T
   3    -79.4427778 -0.742052E-06  0.164E-02    3.60       1.0  T
   4    -79.4427823 -0.450868E-05  0.489E-03    3.60       3.0  T
   5    -79.4427824 -0.182615E-06  0.199E-03    3.60       7.5  T
   6    -79.4427825 -0.278150E-07  0.105E-03    3.60      14.2  T
   7    -79.4427825 -0.559972E-08  0.287E-04    3.60      51.9  T
   8    -79.4427825 -0.853674E-09  0.106E-04    3.60     140.7  T
     SCC iter.                  ...        0 min,  0.017 sec
     gradient                   ...        0 min,  0.017 sec
 * total energy  :   -78.8894987 Eh     change       -0.8792917E-02 Eh
   gradient norm :     0.0184184 Eh/α   predicted    -0.7802487E-02 ( -11.26%)
   displ. norm   :     0.6306503 α      lambda       -0.7146135E-02
   maximum displ.:     0.2409438 α      in ANC's #9, #30, #20, ...

........................................................................
.............................. CYCLE    4 ..............................
........................................................................

 iter      E             dE          RMSdq      gap      omega  full diag
   1    -79.4442329 -0.794442E+02  0.116E-01    3.58       0.0  T
   2    -79.4442694 -0.364825E-04  0.704E-02    3.58       1.0  T
   3    -79.4442709 -0.152802E-05  0.167E-02    3.58       1.0  T
   4    -79.4442741 -0.320003E-05  0.451E-03    3.58       3.3  T
   5    -79.4442743 -0.143077E-06  0.156E-03    3.58       9.6  T
   6    -79.4442743 -0.608502E-08  0.713E-04    3.58      20.9  T
   7    -79.4442743 -0.269338E-08  0.214E-04    3.58      69.8  T
     SCC iter.                  ...        0 min,  0.016 sec
     gradient                   ...        0 min,  0.019 sec
 * total energy  :   -78.8951034 Eh     change       -0.5604665E-02 Eh
   gradient norm :     0.0193956 Eh/α   predicted    -0.4994148E-02 ( -10.89%)
   displ. norm   :     0.6482323 α      lambda       -0.4888986E-02
   maximum displ.:     0.2849900 α      in ANC's #9, #20, #30, ...

........................................................................
.............................. CYCLE    5 ..............................
........................................................................

 iter      E             dE          RMSdq      gap      omega  full diag
   1    -79.4457537 -0.794458E+02  0.111E-01    3.53       0.0  T
   2    -79.4457792 -0.254951E-04  0.669E-02    3.54       1.0  T
   3    -79.4457803 -0.114719E-05  0.141E-02    3.53       1.1  T
   4    -79.4457828 -0.250161E-05  0.403E-03    3.54       3.7  T
   5    -79.4457829 -0.112225E-06  0.152E-03    3.54       9.8  T
   6    -79.4457829 -0.130700E-07  0.803E-04    3.54      18.6  T
   7    -79.4457829 -0.451850E-08  0.214E-04    3.54      69.5  T
     SCC iter.                  ...        0 min,  0.018 sec
     gradient                   ...        0 min,  0.024 sec
 * total energy  :   -78.8989660 Eh     change       -0.3862605E-02 Eh
   gradient norm :     0.0184065 Eh/α   predicted    -0.3471683E-02 ( -10.12%)
   displ. norm   :     0.6586258 α      lambda       -0.3557358E-02
   maximum displ.:     0.3194563 α      in ANC's #9, #20, #30, ...

........................................................................
.............................. CYCLE    6 ..............................
........................................................................

 iter      E             dE          RMSdq      gap      omega  full diag
   1    -79.4484139 -0.794484E+02  0.136E-01    3.50       0.0  T
   2    -79.4484390 -0.251313E-04  0.808E-02    3.51       1.0  T
   3    -79.4484393 -0.308800E-06  0.145E-02    3.50       1.0  T
   4    -79.4484425 -0.319873E-05  0.383E-03    3.51       3.9  T
   5    -79.4484426 -0.856765E-07  0.150E-03    3.51      10.0  T
   6    -79.4484426 -0.124381E-07  0.718E-04    3.51      20.8  T
   7    -79.4484426 -0.380622E-08  0.202E-04    3.51      73.9  T
     SCC iter.                  ...        0 min,  0.016 sec
     gradient                   ...        0 min,  0.019 sec
 * total energy  :   -78.9016653 Eh     change       -0.2699311E-02 Eh
   gradient norm :     0.0152234 Eh/α   predicted    -0.2550250E-02 (  -5.52%)
   displ. norm   :     0.6456250 α      lambda       -0.2643747E-02
   maximum displ.:     0.3266068 α      in ANC's #9, #20, #30, ...

........................................................................
.............................. CYCLE    7 ..............................
........................................................................

 iter      E             dE          RMSdq      gap      omega  full diag
   1    -79.4507938 -0.794508E+02  0.119E-01    3.49       0.0  T
   2    -79.4508030 -0.914405E-05  0.715E-02    3.48       1.0  T
   3    -79.4508043 -0.129683E-05  0.697E-03    3.47       2.1  T
   4    -79.4508050 -0.722504E-06  0.305E-03    3.47       4.9  T
   5    -79.4508051 -0.584079E-07  0.128E-03    3.47      11.6  T
   6    -79.4508051 -0.236804E-08  0.478E-04    3.47      31.2  T
   7    -79.4508051 -0.362124E-08  0.151E-04    3.47      98.9  T
     SCC iter.                  ...        0 min,  0.018 sec
     gradient                   ...        0 min,  0.020 sec
 * total energy  :   -78.9035176 Eh     change       -0.1852269E-02 Eh
   gradient norm :     0.0130003 Eh/α   predicted    -0.1872883E-02 (   1.11%)
   displ. norm   :     0.5933595 α      lambda       -0.1836589E-02
   maximum displ.:     0.3047131 α      in ANC's #9, #6, #30, ...

........................................................................
.............................. CYCLE    8 ..............................
........................................................................

 iter      E             dE          RMSdq      gap      omega  full diag
   1    -79.4524085 -0.794524E+02  0.120E-01    3.46       0.0  T
   2    -79.4524161 -0.761152E-05  0.719E-02    3.47       1.0  T
   3    -79.4524166 -0.503253E-06  0.748E-03    3.46       2.0  T
   4    -79.4524178 -0.123813E-05  0.287E-03    3.46       5.2  T
   5    -79.4524179 -0.292322E-07  0.108E-03    3.47      13.7  T
   6    -79.4524179 -0.361695E-08  0.381E-04    3.47      39.1  T
   7    -79.4524179 -0.117187E-08  0.111E-04    3.47     133.8  T
     SCC iter.                  ...        0 min,  0.015 sec
     gradient                   ...        0 min,  0.015 sec
 * total energy  :   -78.9049157 Eh     change       -0.1398191E-02 Eh
   gradient norm :     0.0131784 Eh/α   predicted    -0.1241608E-02 ( -11.20%)
   displ. norm   :     0.6138533 α      lambda       -0.1747965E-02
   maximum displ.:     0.3096295 α      in ANC's #9, #12, #6, ...

........................................................................
.............................. CYCLE    9 ..............................
........................................................................

 iter      E             dE          RMSdq      gap      omega  full diag
   1    -79.4571380 -0.794571E+02  0.105E-01    3.49       0.0  T
   2    -79.4571423 -0.427371E-05  0.636E-02    3.49       1.0  T
   3    -79.4571438 -0.153486E-05  0.518E-03    3.49       2.9  T
   4    -79.4571440 -0.166218E-06  0.259E-03    3.49       5.8  T
   5    -79.4571440 -0.542754E-07  0.113E-03    3.49      13.2  T
   6    -79.4571440 -0.502189E-08  0.385E-04    3.49      38.7  T
   7    -79.4571440 -0.209286E-08  0.108E-04    3.49     138.1  T
     SCC iter.                  ...        0 min,  0.013 sec
     gradient                   ...        0 min,  0.015 sec
 * total energy  :   -78.9062493 Eh     change       -0.1333528E-02 Eh
   gradient norm :     0.0132009 Eh/α   predicted    -0.1203314E-02 (  -9.76%)
   displ. norm   :     0.6869557 α      lambda       -0.1885183E-02
   maximum displ.:     0.3129101 α      in ANC's #9, #12, #6, ...

........................................................................
.............................. CYCLE   10 ..............................
........................................................................

 iter      E             dE          RMSdq      gap      omega  full diag
   1    -79.4575545 -0.794576E+02  0.114E-01    3.51       0.0  T
   2    -79.4575584 -0.395329E-05  0.689E-02    3.51       1.0  T
   3    -79.4575603 -0.192097E-05  0.520E-03    3.51       2.9  T
   4    -79.4575604 -0.874784E-07  0.248E-03    3.51       6.0  T
   5    -79.4575605 -0.452616E-07  0.904E-04    3.51      16.5  T
   6    -79.4575605 -0.417970E-08  0.290E-04    3.51      51.4  T
     SCC iter.                  ...        0 min,  0.012 sec
     gradient                   ...        0 min,  0.015 sec
 * total energy  :   -78.9077511 Eh     change       -0.1501793E-02 Eh
   gradient norm :     0.0139955 Eh/α   predicted    -0.1387415E-02 (  -7.62%)
   displ. norm   :     0.6896988 α      lambda       -0.1938342E-02
   maximum displ.:     0.3073367 α      in ANC's #12, #9, #13, ...

........................................................................
.............................. CYCLE   11 ..............................
........................................................................

 iter      E             dE          RMSdq      gap      omega  full diag
   1    -79.4576097 -0.794576E+02  0.126E-01    3.51       0.0  T
   2    -79.4576171 -0.745282E-05  0.757E-02    3.52       1.0  T
   3    -79.4576192 -0.202388E-05  0.737E-03    3.52       2.0  T
   4    -79.4576198 -0.657563E-06  0.361E-03    3.52       4.1  T
   5    -79.4576199 -0.691440E-07  0.135E-03    3.52      11.0  T
   6    -79.4576199 -0.328858E-08  0.502E-04    3.52      29.7  T
   7    -79.4576199 -0.470372E-08  0.146E-04    3.52     101.8  T
     SCC iter.                  ...        0 min,  0.014 sec
     gradient                   ...        0 min,  0.015 sec
 * total energy  :   -78.9092929 Eh     change       -0.1541807E-02 Eh
   gradient norm :     0.0181754 Eh/α   predicted    -0.1430198E-02 (  -7.24%)
   displ. norm   :     0.6785011 α      lambda       -0.2068136E-02
   maximum displ.:     0.3377094 α      in ANC's #12, #9, #13, ...

........................................................................
.............................. CYCLE   12 ..............................
........................................................................

 iter      E             dE          RMSdq      gap      omega  full diag
   1    -79.4563877 -0.794564E+02  0.139E-01    3.48       0.0  T
   2    -79.4564037 -0.160262E-04  0.829E-02    3.50       1.0  T
   3    -79.4564049 -0.114577E-05  0.111E-02    3.51       1.3  T
   4    -79.4564069 -0.204242E-05  0.433E-03    3.51       3.4  T
   5    -79.4564071 -0.181973E-06  0.190E-03    3.51       7.8  T
   6    -79.4564071 -0.172090E-07  0.917E-04    3.51      16.3  T
   7    -79.4564071 -0.637247E-08  0.190E-04    3.51      78.6  T
     SCC iter.                  ...        0 min,  0.014 sec
     gradient                   ...        0 min,  0.016 sec
 * total energy  :   -78.9104181 Eh     change       -0.1125231E-02 Eh
   gradient norm :     0.0265190 Eh/α   predicted    -0.1510116E-02 (  34.21%)
   displ. norm   :     0.5497322 α      lambda       -0.2305127E-02
   maximum displ.:     0.2797658 α      in ANC's #12, #8, #33, ...

........................................................................
.............................. CYCLE   13 ..............................
........................................................................

 iter      E             dE          RMSdq      gap      omega  full diag
   1    -79.4563114 -0.794563E+02  0.123E-01    3.49       0.0  T
   2    -79.4563361 -0.246683E-04  0.723E-02    3.51       1.0  T
   3    -79.4563402 -0.409486E-05  0.124E-02    3.51       1.2  T
   4    -79.4563413 -0.114409E-05  0.468E-03    3.51       3.2  T
   5    -79.4563415 -0.208194E-06  0.195E-03    3.51       7.6  T
   6    -79.4563415 -0.481236E-08  0.840E-04    3.51      17.8  T
   7    -79.4563415 -0.953644E-08  0.198E-04    3.51      75.3  T
     SCC iter.                  ...        0 min,  0.017 sec
     gradient                   ...        0 min,  0.015 sec
 * total energy  :   -78.9113556 Eh     change       -0.9375082E-03 Eh
   gradient norm :     0.0276288 Eh/α   predicted    -0.1500878E-02 (  60.09%)
   displ. norm   :     0.4391024 α      lambda       -0.1686545E-02
   maximum displ.:     0.1986164 α      in ANC's #12, #9, #6, ...

........................................................................
.............................. CYCLE   14 ..............................
........................................................................

 iter      E             dE          RMSdq      gap      omega  full diag
   1    -79.4573279 -0.794573E+02  0.821E-02    3.56       0.0  T
   2    -79.4573348 -0.692817E-05  0.501E-02    3.55       1.0  T
   3    -79.4573355 -0.691068E-06  0.768E-03    3.54       1.9  T
   4    -79.4573367 -0.117141E-05  0.286E-03    3.54       5.2  T
   5    -79.4573367 -0.464574E-07  0.112E-03    3.54      13.3  T
   6    -79.4573367 -0.219326E-08  0.464E-04    3.54      32.1  T
   7    -79.4573367 -0.235389E-08  0.123E-04    3.54     120.9  T
     SCC iter.                  ...        0 min,  0.017 sec
     gradient                   ...        0 min,  0.018 sec
 * total energy  :   -78.9122783 Eh     change       -0.9226518E-03 Eh
   gradient norm :     0.0189467 Eh/α   predicted    -0.1005869E-02 (   9.02%)
   displ. norm   :     0.3774955 α      lambda       -0.1610334E-02
   maximum displ.:     0.1531201 α      in ANC's #12, #9, #13, ...

........................................................................
.............................. CYCLE   15 ..............................
........................................................................

 iter      E             dE          RMSdq      gap      omega  full diag
   1    -79.4650211 -0.794650E+02  0.900E-02    3.59       0.0  T
   2    -79.4650340 -0.129374E-04  0.545E-02    3.58       1.0  T
   3    -79.4650356 -0.159118E-05  0.991E-03    3.58       1.5  T
   4    -79.4650371 -0.148176E-05  0.391E-03    3.58       3.8  T
   5    -79.4650372 -0.109064E-06  0.153E-03    3.58       9.8  T
   6    -79.4650372 -0.395553E-08  0.541E-04    3.58      27.5  T
   7    -79.4650372 -0.253284E-08  0.144E-04    3.58     103.6  T
     SCC iter.                  ...        0 min,  0.014 sec
     gradient                   ...        0 min,  0.016 sec
 * total energy  :   -78.9124654 Eh     change       -0.1870848E-03 Eh
   gradient norm :     0.0341892 Eh/α   predicted    -0.9199062E-03 ( 391.71%)
   displ. norm   :     0.3441436 α      lambda       -0.2015756E-02
   maximum displ.:     0.1348135 α      in ANC's #12, #6, #4, ...

........................................................................
.............................. CYCLE   16 ..............................
........................................................................

 iter      E             dE          RMSdq      gap      omega  full diag
   1    -79.4692741 -0.794693E+02  0.901E-02    3.54       0.0  T
   2    -79.4692884 -0.143523E-04  0.531E-02    3.55       1.0  T
   3    -79.4692908 -0.236885E-05  0.103E-02    3.55       1.4  T
   4    -79.4692917 -0.945839E-06  0.442E-03    3.56       3.4  T
   5    -79.4692920 -0.244211E-06  0.153E-03    3.55       9.7  T
   6    -79.4692920 -0.701914E-08  0.790E-04    3.55      18.9  T
   7    -79.4692920 -0.522026E-08  0.114E-04    3.55     130.9  T
     SCC iter.                  ...        0 min,  0.014 sec
     gradient                   ...        0 min,  0.015 sec
 * total energy  :   -78.9130806 Eh     change       -0.6152087E-03 Eh
   gradient norm :     0.0271774 Eh/α   predicted    -0.1127248E-02 (  83.23%)
   displ. norm   :     0.4629497 α      lambda       -0.2352057E-02
   maximum displ.:     0.2203428 α      in ANC's #12, #6, #9, ...

........................................................................
.............................. CYCLE   17 ..............................
........................................................................

 iter      E             dE          RMSdq      gap      omega  full diag
   1    -79.4394903 -0.794395E+02  0.138E-01    3.47       0.0  T
   2    -79.4395142 -0.239907E-04  0.833E-02    3.49       1.0  T
   3    -79.4395166 -0.236302E-05  0.138E-02    3.49       1.1  T
   4    -79.4395202 -0.355946E-05  0.547E-03    3.49       2.7  T
   5    -79.4395204 -0.184680E-06  0.207E-03    3.48       7.2  T
   6    -79.4395204 -0.514994E-08  0.747E-04    3.48      19.9  T
   7    -79.4395204 -0.813078E-08  0.184E-04    3.49      81.1  T
     SCC iter.                  ...        0 min,  0.014 sec
     gradient                   ...        0 min,  0.015 sec
 * total energy  :   -78.9123989 Eh     change        0.6816895E-03 Eh
   gradient norm :     0.0460626 Eh/α   predicted    -0.1428080E-02 (-309.49%)
   displ. norm   :     0.2182059 α      lambda       -0.3470418E-02
   maximum displ.:     0.0727452 α      in ANC's #21, #20, #1, ...

........................................................................
.............................. CYCLE   18 ..............................
........................................................................

 iter      E             dE          RMSdq      gap      omega  full diag
   1    -79.4614183 -0.794614E+02  0.882E-02    3.51       0.0  T
   2    -79.4614310 -0.126611E-04  0.522E-02    3.50       1.0  T
   3    -79.4614341 -0.310688E-05  0.960E-03    3.51       1.6  T
   4    -79.4614348 -0.715133E-06  0.426E-03    3.51       3.5  T
   5    -79.4614350 -0.143365E-06  0.164E-03    3.51       9.1  T
   6    -79.4614350 -0.389130E-08  0.585E-04    3.51      25.5  T
   7    -79.4614350 -0.441496E-08  0.132E-04    3.51     112.8  T
     SCC iter.                  ...        0 min,  0.014 sec
     gradient                   ...        0 min,  0.015 sec
 * total energy  :   -78.9138234 Eh     change       -0.1424479E-02 Eh
   gradient norm :     0.0207369 Eh/α   predicted    -0.1817831E-02 (  27.61%)
   displ. norm   :     0.2732074 α      lambda       -0.1664195E-02
   maximum displ.:     0.0891560 α      in ANC's #12, #9, #4, ...

........................................................................
.............................. CYCLE   19 ..............................
........................................................................

 iter      E             dE          RMSdq      gap      omega  full diag
   1    -79.4667564 -0.794668E+02  0.943E-02    3.57       0.0  T
   2    -79.4667704 -0.140546E-04  0.574E-02    3.55       1.0  T
   3    -79.4667719 -0.145473E-05  0.106E-02    3.55       1.4  T
   4    -79.4667738 -0.188790E-05  0.408E-03    3.55       3.7  T
   5    -79.4667739 -0.105930E-06  0.158E-03    3.55       9.4  T
   6    -79.4667739 -0.372805E-08  0.649E-04    3.55      23.0  T
   7    -79.4667739 -0.475981E-08  0.162E-04    3.55      92.1  T
     SCC iter.                  ...        0 min,  0.013 sec
     gradient                   ...        0 min,  0.015 sec
 * total energy  :   -78.9137519 Eh     change        0.7140776E-04 Eh
   gradient norm :     0.0297051 Eh/α   predicted    -0.8942117E-03 (*******%)
   displ. norm   :     0.2242139 α      lambda       -0.1472335E-02
   maximum displ.:     0.0812134 α      in ANC's #12, #6, #8, ...

........................................................................
.............................. CYCLE   20 ..............................
........................................................................

 iter      E             dE          RMSdq      gap      omega  full diag
   1    -79.4625127 -0.794625E+02  0.697E-02    3.52       0.0  T
   2    -79.4625190 -0.625458E-05  0.417E-02    3.52       1.0  T
   3    -79.4625194 -0.373947E-06  0.750E-03    3.52       2.0  T
   4    -79.4625203 -0.979082E-06  0.270E-03    3.52       5.5  T
   5    -79.4625204 -0.482930E-07  0.996E-04    3.52      15.0  T
   6    -79.4625204 -0.357565E-08  0.497E-04    3.52      30.0  T
     SCC iter.                  ...        0 min,  0.012 sec
     gradient                   ...        0 min,  0.015 sec
 * total energy  :   -78.9145279 Eh     change       -0.7759070E-03 Eh
   gradient norm :     0.0133191 Eh/α   predicted    -0.7731798E-03 (  -0.35%)
   displ. norm   :     0.2572684 α      lambda       -0.9529646E-03
   maximum displ.:     0.1007696 α      in ANC's #12, #8, #6, ...
 * RMSD in coord.:     1.1099137 α      energy gain  -0.5640789E-01 Eh

generating ANC from exact Hessian ...
Using Lindh-Hessian (1995)
 Shifting diagonal of input Hessian by   1.012885306584758E-002
 Lowest  eigenvalues of input Hessian
    0.010000    0.000000    0.000000    0.000000    0.000000    0.000000
    0.000000    0.010180    0.010238    0.010262    0.010403    0.010464
    0.010507    0.010645    0.010792    0.010898    0.010954    0.011887
 Highest eigenvalues
    1.454236    1.483190    1.513053    1.528434    1.534224    2.178476
 

........................................................................
.............................. CYCLE   21 ..............................
........................................................................

 iter      E             dE          RMSdq      gap      omega  full diag
   1    -79.4581290 -0.794581E+02  0.888E-02    3.48       0.0  T
   2    -79.4581403 -0.112455E-04  0.527E-02    3.49       1.0  T
   3    -79.4581424 -0.216332E-05  0.837E-03    3.50       1.8  T
   4    -79.4581430 -0.550927E-06  0.338E-03    3.50       4.4  T
   5    -79.4581431 -0.983201E-07  0.144E-03    3.49      10.4  T
   6    -79.4581431 -0.348520E-08  0.250E-04    3.49      59.6  T
   7    -79.4581431 -0.632681E-09  0.908E-05    3.49     164.2  T
     SCC iter.                  ...        0 min,  0.020 sec
     gradient                   ...        0 min,  0.016 sec
 * total energy  :   -78.9141834 Eh     change        0.3444922E-03 Eh
   gradient norm :     0.0326816 Eh/α   predicted     0.0000000E+00 (-100.00%)
   displ. norm   :     0.1409894 α      lambda       -0.1318180E-02
   maximum displ.:     0.0641800 α      in ANC's #9, #13, #22, ...

........................................................................
.............................. CYCLE   22 ..............................
........................................................................

 iter      E             dE          RMSdq      gap      omega  full diag
   1    -79.4614485 -0.794614E+02  0.493E-02    3.52       0.0  T
   2    -79.4614519 -0.339652E-05  0.296E-02    3.52       1.0  T
   3    -79.4614526 -0.633536E-06  0.481E-03    3.52       3.1  T
   4    -79.4614528 -0.247042E-06  0.205E-03    3.52       7.3  T
   5    -79.4614528 -0.277627E-07  0.773E-04    3.52      19.3  T
   6    -79.4614528 -0.797272E-09  0.297E-04    3.52      50.1  T
     SCC iter.                  ...        0 min,  0.020 sec
     gradient                   ...        0 min,  0.016 sec
 * total energy  :   -78.9150687 Eh     change       -0.8853303E-03 Eh
   gradient norm :     0.0102327 Eh/α   predicted    -0.6722059E-03 ( -24.07%)
   displ. norm   :     0.2231277 α      lambda       -0.6480869E-03
   maximum displ.:     0.1146356 α      in ANC's #9, #13, #10, ...

........................................................................
.............................. CYCLE   23 ..............................
........................................................................

 iter      E             dE          RMSdq      gap      omega  full diag
   1    -79.4631512 -0.794632E+02  0.649E-02    3.52       0.0  T
   2    -79.4631542 -0.296060E-05  0.387E-02    3.52       1.0  T
   3    -79.4631547 -0.576711E-06  0.439E-03    3.52       3.4  T
   4    -79.4631549 -0.196313E-06  0.190E-03    3.52       7.8  T
   5    -79.4631550 -0.218165E-07  0.755E-04    3.52      19.8  T
   6    -79.4631550 -0.161425E-08  0.317E-04    3.52      47.1  T
     SCC iter.                  ...        0 min,  0.012 sec
     gradient                   ...        0 min,  0.015 sec
 * total energy  :   -78.9154101 Eh     change       -0.3413873E-03 Eh
   gradient norm :     0.0096934 Eh/α   predicted    -0.3405076E-03 (  -0.26%)
   displ. norm   :     0.2249829 α      lambda       -0.3802789E-03
   maximum displ.:     0.1226981 α      in ANC's #9, #10, #13, ...

........................................................................
.............................. CYCLE   24 ..............................
........................................................................

 iter      E             dE          RMSdq      gap      omega  full diag
   1    -79.4629056 -0.794629E+02  0.457E-02    3.51       0.0  T
   2    -79.4629069 -0.132354E-05  0.277E-02    3.52       1.0  T
   3    -79.4629072 -0.238420E-06  0.321E-03    3.52       4.6  T
   4    -79.4629073 -0.162440E-06  0.142E-03    3.52      10.5  T
   5    -79.4629074 -0.170656E-07  0.602E-04    3.52      24.7  T
   6    -79.4629074 -0.239253E-08  0.273E-04    3.52      54.7  T
     SCC iter.                  ...        0 min,  0.013 sec
     gradient                   ...        0 min,  0.015 sec
 * total energy  :   -78.9156948 Eh     change       -0.2847159E-03 Eh
   gradient norm :     0.0129595 Eh/α   predicted    -0.1997640E-03 ( -29.84%)
   displ. norm   :     0.4053071 α      lambda       -0.5827380E-03
   maximum displ.:     0.2086667 α      in ANC's #9, #10, #13, ...

........................................................................
.............................. CYCLE   25 ..............................
........................................................................

 iter      E             dE          RMSdq      gap      omega  full diag
   1    -79.4610560 -0.794611E+02  0.709E-02    3.51       0.0  T
   2    -79.4610595 -0.356367E-05  0.430E-02    3.51       1.0  T
   3    -79.4610605 -0.926131E-06  0.479E-03    3.51       3.1  T
   4    -79.4610607 -0.223782E-06  0.230E-03    3.51       6.5  T
   5    -79.4610607 -0.423939E-07  0.103E-03    3.51      14.5  T
   6    -79.4610607 -0.801192E-08  0.439E-04    3.51      34.0  T
   7    -79.4610607 -0.100943E-08  0.984E-05    3.51     151.6  T
     SCC iter.                  ...        0 min,  0.015 sec
     gradient                   ...        0 min,  0.015 sec
 * total energy  :   -78.9161655 Eh     change       -0.4707351E-03 Eh
   gradient norm :     0.0118298 Eh/α   predicted    -0.3392345E-03 ( -27.94%)
   displ. norm   :     0.5259233 α      lambda       -0.7032703E-03
   maximum displ.:     0.2684422 α      in ANC's #9, #10, #5, ...

........................................................................
.............................. CYCLE   26 ..............................
........................................................................

 iter      E             dE          RMSdq      gap      omega  full diag
   1    -79.4600593 -0.794601E+02  0.861E-02    3.50       0.0  T
   2    -79.4600650 -0.573622E-05  0.519E-02    3.50       1.0  T
   3    -79.4600663 -0.131128E-05  0.580E-03    3.50       2.6  T
   4    -79.4600666 -0.256525E-06  0.256E-03    3.50       5.8  T
   5    -79.4600666 -0.412499E-07  0.111E-03    3.50      13.5  T
   6    -79.4600666 -0.918648E-08  0.528E-04    3.50      28.2  T
   7    -79.4600666 -0.189424E-08  0.120E-04    3.50     124.5  T
     SCC iter.                  ...        0 min,  0.014 sec
     gradient                   ...        0 min,  0.015 sec
 * total energy  :   -78.9167084 Eh     change       -0.5428446E-03 Eh
   gradient norm :     0.0111237 Eh/α   predicted    -0.4489005E-03 ( -17.31%)
   displ. norm   :     0.5177292 α      lambda       -0.6895432E-03
   maximum displ.:     0.2533071 α      in ANC's #9, #5, #13, ...

........................................................................
.............................. CYCLE   27 ..............................
........................................................................

 iter      E             dE          RMSdq      gap      omega  full diag
   1    -79.4617301 -0.794617E+02  0.827E-02    3.50       0.0  T
   2    -79.4617356 -0.551451E-05  0.495E-02    3.50       1.0  T
   3    -79.4617367 -0.102062E-05  0.567E-03    3.49       2.6  T
   4    -79.4617369 -0.253538E-06  0.231E-03    3.50       6.5  T
   5    -79.4617369 -0.360490E-07  0.900E-04    3.49      16.6  T
   6    -79.4617370 -0.472325E-08  0.446E-04    3.50      33.4  T
     SCC iter.                  ...        0 min,  0.011 sec
     gradient                   ...        0 min,  0.019 sec
 * total energy  :   -78.9172209 Eh     change       -0.5124827E-03 Eh
   gradient norm :     0.0106642 Eh/α   predicted    -0.4371904E-03 ( -14.69%)
   displ. norm   :     0.5926608 α      lambda       -0.6752634E-03
   maximum displ.:     0.2769059 α      in ANC's #9, #4, #5, ...

........................................................................
.............................. CYCLE   28 ..............................
........................................................................

 iter      E             dE          RMSdq      gap      omega  full diag
   1    -79.4604676 -0.794605E+02  0.935E-02    3.51       0.0  T
   2    -79.4604742 -0.664774E-05  0.564E-02    3.50       1.0  T
   3    -79.4604757 -0.145984E-05  0.622E-03    3.50       2.4  T
   4    -79.4604761 -0.386220E-06  0.276E-03    3.50       5.4  T
   5    -79.4604761 -0.476769E-07  0.102E-03    3.50      14.7  T
   6    -79.4604761 -0.453767E-08  0.465E-04    3.50      32.0  T
   7    -79.4604761 -0.146755E-08  0.134E-04    3.50     111.4  T
     SCC iter.                  ...        0 min,  0.024 sec
     gradient                   ...        0 min,  0.015 sec
 * total energy  :   -78.9177040 Eh     change       -0.4831786E-03 Eh
   gradient norm :     0.0152230 Eh/α   predicted    -0.4562263E-03 (  -5.58%)
   displ. norm   :     0.4686856 α      lambda       -0.8861016E-03
   maximum displ.:     0.2110005 α      in ANC's #4, #5, #2, ...

........................................................................
.............................. CYCLE   29 ..............................
........................................................................

 iter      E             dE          RMSdq      gap      omega  full diag
   1    -79.4693071 -0.794693E+02  0.677E-02    3.53       0.0  T
   2    -79.4693131 -0.600254E-05  0.403E-02    3.53       1.0  T
   3    -79.4693139 -0.817900E-06  0.618E-03    3.53       2.4  T
   4    -79.4693144 -0.445954E-06  0.242E-03    3.53       6.2  T
   5    -79.4693144 -0.605938E-07  0.754E-04    3.53      19.8  T
   6    -79.4693144 -0.941313E-09  0.227E-04    3.53      65.6  T
     SCC iter.                  ...        0 min,  0.012 sec
     gradient                   ...        0 min,  0.017 sec
 * total energy  :   -78.9181998 Eh     change       -0.4958049E-03 Eh
   gradient norm :     0.0126461 Eh/α   predicted    -0.5403764E-03 (   8.99%)
   displ. norm   :     0.4841435 α      lambda       -0.6460269E-03
   maximum displ.:     0.2172540 α      in ANC's #4, #5, #9, ...

........................................................................
.............................. CYCLE   30 ..............................
........................................................................

 iter      E             dE          RMSdq      gap      omega  full diag
   1    -79.4635556 -0.794636E+02  0.746E-02    3.52       0.0  T
   2    -79.4635623 -0.676441E-05  0.450E-02    3.53       1.0  T
   3    -79.4635635 -0.116107E-05  0.660E-03    3.53       2.3  T
   4    -79.4635639 -0.444948E-06  0.276E-03    3.53       5.4  T
   5    -79.4635641 -0.110420E-06  0.105E-03    3.53      14.1  T
   6    -79.4635641 -0.487806E-08  0.522E-04    3.53      28.5  T
   7    -79.4635641 -0.197927E-08  0.103E-04    3.53     145.4  T
     SCC iter.                  ...        0 min,  0.014 sec
     gradient                   ...        0 min,  0.015 sec
 * total energy  :   -78.9186061 Eh     change       -0.4062518E-03 Eh
   gradient norm :     0.0107854 Eh/α   predicted    -0.3987265E-03 (  -1.85%)
   displ. norm   :     0.3111249 α      lambda       -0.6711556E-03
   maximum displ.:     0.1412804 α      in ANC's #4, #5, #12, ...

........................................................................
.............................. CYCLE   31 ..............................
........................................................................

 iter      E             dE          RMSdq      gap      omega  full diag
   1    -79.4618245 -0.794618E+02  0.624E-02    3.52       0.0  T
   2    -79.4618280 -0.354252E-05  0.373E-02    3.54       1.0  T
   3    -79.4618285 -0.471312E-06  0.485E-03    3.54       3.1  T
   4    -79.4618288 -0.290624E-06  0.200E-03    3.54       7.4  T
   5    -79.4618288 -0.314804E-07  0.971E-04    3.54      15.4  T
   6    -79.4618288 -0.658488E-08  0.416E-04    3.54      35.9  T
     SCC iter.                  ...        0 min,  0.012 sec
     gradient                   ...        0 min,  0.015 sec
 * total energy  :   -78.9189680 Eh     change       -0.3618765E-03 Eh
   gradient norm :     0.0166894 Eh/α   predicted    -0.3680700E-03 (   1.71%)
   displ. norm   :     0.2799773 α      lambda       -0.5439891E-03
   maximum displ.:     0.1442097 α      in ANC's #5, #4, #14, ...

........................................................................
.............................. CYCLE   32 ..............................
........................................................................

 iter      E             dE          RMSdq      gap      omega  full diag
   1    -79.4633485 -0.794633E+02  0.483E-02    3.54       0.0  T
   2    -79.4633504 -0.191476E-05  0.290E-02    3.55       1.0  T
   3    -79.4633508 -0.354702E-06  0.371E-03    3.55       4.0  T
   4    -79.4633510 -0.191921E-06  0.163E-03    3.55       9.1  T
   5    -79.4633510 -0.120849E-07  0.727E-04    3.55      20.5  T
   6    -79.4633510 -0.327371E-08  0.312E-04    3.55      47.7  T
     SCC iter.                  ...        0 min,  0.012 sec
     gradient                   ...        0 min,  0.015 sec
 * total energy  :   -78.9192879 Eh     change       -0.3199506E-03 Eh
   gradient norm :     0.0111486 Eh/α   predicted    -0.2933162E-03 (  -8.32%)
   displ. norm   :     0.5224047 α      lambda       -0.6565748E-03
   maximum displ.:     0.2765671 α      in ANC's #5, #4, #2, ...

........................................................................
.............................. CYCLE   33 ..............................
........................................................................

 iter      E             dE          RMSdq      gap      omega  full diag
   1    -79.4611280 -0.794611E+02  0.867E-02    3.57       0.0  T
   2    -79.4611352 -0.715715E-05  0.524E-02    3.58       1.0  T
   3    -79.4611368 -0.166476E-05  0.624E-03    3.58       2.4  T
   4    -79.4611372 -0.335698E-06  0.261E-03    3.58       5.7  T
   5    -79.4611372 -0.718175E-07  0.114E-03    3.58      13.0  T
   6    -79.4611372 -0.193356E-08  0.481E-04    3.58      31.0  T
   7    -79.4611372 -0.365081E-08  0.106E-04    3.58     140.3  T
     SCC iter.                  ...        0 min,  0.014 sec
     gradient                   ...        0 min,  0.015 sec
 * total energy  :   -78.9196058 Eh     change       -0.3178755E-03 Eh
   gradient norm :     0.0164199 Eh/α   predicted    -0.4178842E-03 (  31.46%)
   displ. norm   :     0.3276243 α      lambda       -0.6919391E-03
   maximum displ.:     0.1926601 α      in ANC's #5, #4, #19, ...

........................................................................
.............................. CYCLE   34 ..............................
........................................................................

 iter      E             dE          RMSdq      gap      omega  full diag
   1    -79.4637495 -0.794637E+02  0.641E-02    3.59       0.0  T
   2    -79.4637524 -0.288388E-05  0.384E-02    3.59       1.0  T
   3    -79.4637529 -0.503031E-06  0.458E-03    3.59       3.3  T
   4    -79.4637532 -0.321884E-06  0.204E-03    3.59       7.3  T
   5    -79.4637533 -0.369840E-07  0.822E-04    3.59      18.1  T
   6    -79.4637533 -0.249331E-08  0.389E-04    3.59      38.3  T
     SCC iter.                  ...        0 min,  0.015 sec
     gradient                   ...        0 min,  0.015 sec
 * total energy  :   -78.9198893 Eh     change       -0.2835165E-03 Eh
   gradient norm :     0.0160233 Eh/α   predicted    -0.3831065E-03 (  35.13%)
   displ. norm   :     0.2750147 α      lambda       -0.7645690E-03
   maximum displ.:     0.1835966 α      in ANC's #5, #4, #13, ...

........................................................................
.............................. CYCLE   35 ..............................
........................................................................

 iter      E             dE          RMSdq      gap      omega  full diag
   1    -79.4659416 -0.794659E+02  0.698E-02    3.59       0.0  T
   2    -79.4659465 -0.494119E-05  0.420E-02    3.60       1.0  T
   3    -79.4659479 -0.143362E-05  0.621E-03    3.60       2.4  T
   4    -79.4659483 -0.392813E-06  0.308E-03    3.60       4.8  T
   5    -79.4659484 -0.504942E-07  0.122E-03    3.60      12.2  T
   6    -79.4659484 -0.783126E-08  0.505E-04    3.60      29.5  T
   7    -79.4659484 -0.187008E-08  0.123E-04    3.60     121.4  T
     SCC iter.                  ...        0 min,  0.013 sec
     gradient                   ...        0 min,  0.015 sec
 * total energy  :   -78.9197642 Eh     change        0.1251319E-03 Eh
   gradient norm :     0.0255992 Eh/α   predicted    -0.4111993E-03 (-428.61%)
   displ. norm   :     0.1733486 α      lambda       -0.1045470E-02
   maximum displ.:     0.0938414 α      in ANC's #5, #27, #4, ...

........................................................................
.............................. CYCLE   36 ..............................
........................................................................

 iter      E             dE          RMSdq      gap      omega  full diag
   1    -79.4640884 -0.794641E+02  0.581E-02    3.60       0.0  T
   2    -79.4640931 -0.467495E-05  0.352E-02    3.60       1.0  T
   3    -79.4640944 -0.133481E-05  0.575E-03    3.60       2.6  T
   4    -79.4640947 -0.258738E-06  0.257E-03    3.60       5.8  T
   5    -79.4640947 -0.583514E-07  0.103E-03    3.60      14.4  T
   6    -79.4640947 -0.137025E-08  0.400E-04    3.60      37.2  T
   7    -79.4640947 -0.264866E-08  0.757E-05    3.60     196.8  T
     SCC iter.                  ...        0 min,  0.013 sec
     gradient                   ...        0 min,  0.015 sec
 * total energy  :   -78.9203107 Eh     change       -0.5465317E-03 Eh
   gradient norm :     0.0085231 Eh/α   predicted    -0.5384440E-03 (  -1.48%)
   displ. norm   :     0.3256706 α      lambda       -0.3792693E-03
   maximum displ.:     0.1945274 α      in ANC's #5, #4, #9, ...

........................................................................
.............................. CYCLE   37 ..............................
........................................................................

 iter      E             dE          RMSdq      gap      omega  full diag
   1    -79.4621057 -0.794621E+02  0.569E-02    3.61       0.0  T
   2    -79.4621093 -0.363178E-05  0.348E-02    3.61       1.0  T
   3    -79.4621103 -0.968538E-06  0.458E-03    3.61       3.3  T
   4    -79.4621105 -0.180314E-06  0.204E-03    3.61       7.3  T
   5    -79.4621105 -0.380987E-07  0.872E-04    3.61      17.1  T
   6    -79.4621105 -0.139731E-08  0.243E-04    3.61      61.4  T
     SCC iter.                  ...        0 min,  0.012 sec
     gradient                   ...        0 min,  0.017 sec
 * total energy  :   -78.9204098 Eh     change       -0.9907741E-04 Eh
   gradient norm :     0.0163384 Eh/α   predicted    -0.2097491E-03 ( 111.70%)
   displ. norm   :     0.2024448 α      lambda       -0.3647500E-03
   maximum displ.:     0.1499656 α      in ANC's #5, #4, #8, ...

........................................................................
.............................. CYCLE   38 ..............................
........................................................................

 iter      E             dE          RMSdq      gap      omega  full diag
   1    -79.4650706 -0.794651E+02  0.366E-02    3.61       0.0  T
   2    -79.4650720 -0.137163E-05  0.218E-02    3.61       1.0  T
   3    -79.4650722 -0.267786E-06  0.298E-03    3.61       5.0  T
   4    -79.4650723 -0.646123E-07  0.121E-03    3.61      12.3  T
   5    -79.4650723 -0.202473E-07  0.498E-04    3.61      30.0  T
   6    -79.4650723 -0.198355E-09  0.196E-04    3.61      76.1  T
     SCC iter.                  ...        0 min,  0.012 sec
     gradient                   ...        0 min,  0.016 sec
 * total energy  :   -78.9206410 Eh     change       -0.2312035E-03 Eh
   gradient norm :     0.0077423 Eh/α   predicted    -0.1898513E-03 ( -17.89%)
   displ. norm   :     0.3453517 α      lambda       -0.3709784E-03
   maximum displ.:     0.2461487 α      in ANC's #5, #14, #13, ...

........................................................................
.............................. CYCLE   39 ..............................
........................................................................

 iter      E             dE          RMSdq      gap      omega  full diag
   1    -79.4658685 -0.794659E+02  0.626E-02    3.61       0.0  T
   2    -79.4658716 -0.304572E-05  0.376E-02    3.61       1.0  T
   3    -79.4658721 -0.554364E-06  0.439E-03    3.61       3.4  T
   4    -79.4658724 -0.234747E-06  0.186E-03    3.61       8.0  T
   5    -79.4658724 -0.344595E-07  0.739E-04    3.61      20.2  T
   6    -79.4658724 -0.850349E-09  0.196E-04    3.61      76.0  T
     SCC iter.                  ...        0 min,  0.013 sec
     gradient                   ...        0 min,  0.015 sec
 * total energy  :   -78.9208411 Eh     change       -0.2000750E-03 Eh
   gradient norm :     0.0062928 Eh/α   predicted    -0.2076144E-03 (   3.77%)
   displ. norm   :     0.4046513 α      lambda       -0.2934241E-03
   maximum displ.:     0.2928910 α      in ANC's #5, #4, #8, ...

........................................................................
.............................. CYCLE   40 ..............................
........................................................................

 iter      E             dE          RMSdq      gap      omega  full diag
   1    -79.4653815 -0.794654E+02  0.668E-02    3.61       0.0  T
   2    -79.4653840 -0.247104E-05  0.405E-02    3.61       1.0  T
   3    -79.4653847 -0.693571E-06  0.378E-03    3.61       3.9  T
   4    -79.4653848 -0.135563E-06  0.182E-03    3.61       8.2  T
   5    -79.4653848 -0.313707E-07  0.773E-04    3.61      19.3  T
   6    -79.4653849 -0.278067E-08  0.324E-04    3.61      46.0  T
     SCC iter.                  ...        0 min,  0.013 sec
     gradient                   ...        0 min,  0.016 sec
 * total energy  :   -78.9210348 Eh     change       -0.1937561E-03 Eh
   gradient norm :     0.0085819 Eh/α   predicted    -0.1707367E-03 ( -11.88%)
   displ. norm   :     0.4801353 α      lambda       -0.4196638E-03
   maximum displ.:     0.3273426 α      in ANC's #5, #8, #7, ...

........................................................................
.............................. CYCLE   41 ..............................
........................................................................

 iter      E             dE          RMSdq      gap      omega  full diag
   1    -79.4656874 -0.794657E+02  0.817E-02    3.62       0.0  T
   2    -79.4656936 -0.621319E-05  0.496E-02    3.61       1.0  T
   3    -79.4656947 -0.107474E-05  0.619E-03    3.61       2.4  T
   4    -79.4656952 -0.536576E-06  0.250E-03    3.61       6.0  T
   5    -79.4656953 -0.411271E-07  0.946E-04    3.61      15.8  T
   6    -79.4656953 -0.152595E-08  0.356E-04    3.61      41.8  T
     SCC iter.                  ...        0 min,  0.012 sec
     gradient                   ...        0 min,  0.016 sec
 * total energy  :   -78.9212473 Eh     change       -0.2124488E-03 Eh
   gradient norm :     0.0114836 Eh/α   predicted    -0.2582050E-03 (  21.54%)
   displ. norm   :     0.3128753 α      lambda       -0.3041918E-03
   maximum displ.:     0.2031028 α      in ANC's #5, #8, #14, ...

........................................................................
.............................. CYCLE   42 ..............................
........................................................................

 iter      E             dE          RMSdq      gap      omega  full diag
   1    -79.4656542 -0.794657E+02  0.539E-02    3.60       0.0  T
   2    -79.4656558 -0.157800E-05  0.326E-02    3.61       1.0  T
   3    -79.4656563 -0.476055E-06  0.315E-03    3.61       4.7  T
   4    -79.4656564 -0.974568E-07  0.153E-03    3.61       9.7  T
   5    -79.4656564 -0.164601E-07  0.609E-04    3.61      24.5  T
   6    -79.4656564 -0.826958E-09  0.241E-04    3.61      61.8  T
     SCC iter.                  ...        0 min,  0.012 sec
     gradient                   ...        0 min,  0.016 sec
 * total energy  :   -78.9214167 Eh     change       -0.1693888E-03 Eh
   gradient norm :     0.0116730 Eh/α   predicted    -0.1669879E-03 (  -1.42%)
   displ. norm   :     0.2984109 α      lambda       -0.4402206E-03
   maximum displ.:     0.1232036 α      in ANC's #5, #4, #8, ...
 * RMSD in coord.:     0.9296104 α      energy gain  -0.6888807E-02 Eh

generating ANC from exact Hessian ...
Using Lindh-Hessian (1995)
 Shifting diagonal of input Hessian by   1.015793568882556E-002
 Lowest  eigenvalues of input Hessian
    0.010000    0.000000    0.000000    0.000000    0.000000    0.000000
    0.000000    0.010275    0.010341    0.010348    0.010614    0.010766
    0.010882    0.010934    0.011158    0.011344    0.011784    0.012159
 Highest eigenvalues
    1.456792    1.475622    1.508243    1.525878    1.537647    2.196396
 

........................................................................
.............................. CYCLE   43 ..............................
........................................................................

 iter      E             dE          RMSdq      gap      omega  full diag
   1    -79.4690626 -0.794691E+02  0.554E-02    3.59       0.0  T
   2    -79.4690653 -0.270726E-05  0.337E-02    3.60       1.0  T
   3    -79.4690659 -0.517322E-06  0.468E-03    3.60       3.2  T
   4    -79.4690662 -0.350150E-06  0.201E-03    3.60       7.4  T
   5    -79.4690662 -0.351491E-07  0.714E-04    3.60      20.9  T
   6    -79.4690662 -0.219832E-08  0.349E-04    3.60      42.8  T
     SCC iter.                  ...        0 min,  0.012 sec
     gradient                   ...        0 min,  0.016 sec
 * total energy  :   -78.9216742 Eh     change       -0.2575572E-03 Eh
   gradient norm :     0.0106409 Eh/α   predicted     0.0000000E+00 (-100.00%)
   displ. norm   :     0.1104307 α      lambda       -0.3163827E-03
   maximum displ.:     0.0433330 α      in ANC's #13, #12, #11, ...

........................................................................
.............................. CYCLE   44 ..............................
........................................................................

 iter      E             dE          RMSdq      gap      omega  full diag
   1    -79.4674666 -0.794675E+02  0.309E-02    3.59       0.0  T
   2    -79.4674673 -0.742744E-06  0.189E-02    3.59       1.0  T
   3    -79.4674675 -0.225153E-06  0.221E-03    3.59       6.8  T
   4    -79.4674676 -0.695651E-07  0.106E-03    3.59      14.0  T
   5    -79.4674676 -0.241364E-08  0.362E-04    3.59      41.2  T
   6    -79.4674676 -0.118344E-08  0.144E-04    3.59     103.4  T
     SCC iter.                  ...        0 min,  0.015 sec
     gradient                   ...        0 min,  0.017 sec
 * total energy  :   -78.9219236 Eh     change       -0.2494047E-03 Eh
   gradient norm :     0.0043212 Eh/α   predicted    -0.1601209E-03 ( -35.80%)
   displ. norm   :     0.2822328 α      lambda       -0.4659691E-03
   maximum displ.:     0.1306598 α      in ANC's #12, #13, #11, ...

........................................................................
.............................. CYCLE   45 ..............................
........................................................................

 iter      E             dE          RMSdq      gap      omega  full diag
   1    -79.4636525 -0.794637E+02  0.669E-02    3.59       0.0  T
   2    -79.4636549 -0.235679E-05  0.410E-02    3.59       1.0  T
   3    -79.4636557 -0.837296E-06  0.390E-03    3.58       3.8  T
   4    -79.4636560 -0.246761E-06  0.202E-03    3.58       7.4  T
   5    -79.4636560 -0.746898E-08  0.510E-04    3.58      29.2  T
   6    -79.4636560 -0.133312E-08  0.178E-04    3.58      83.8  T
     SCC iter.                  ...        0 min,  0.012 sec
     gradient                   ...        0 min,  0.016 sec
 * total energy  :   -78.9221882 Eh     change       -0.2645798E-03 Eh
   gradient norm :     0.0126771 Eh/α   predicted    -0.2515554E-03 (  -4.92%)
   displ. norm   :     0.1553755 α      lambda       -0.2660895E-03
   maximum displ.:     0.0900321 α      in ANC's #12, #11, #10, ...

........................................................................
.............................. CYCLE   46 ..............................
........................................................................

 iter      E             dE          RMSdq      gap      omega  full diag
   1    -79.4639055 -0.794639E+02  0.325E-02    3.58       0.0  T
   2    -79.4639061 -0.558743E-06  0.198E-02    3.58       1.0  T
   3    -79.4639062 -0.104107E-06  0.197E-03    3.58       7.6  T
   4    -79.4639062 -0.694460E-07  0.826E-04    3.58      18.1  T
   5    -79.4639062 -0.459845E-08  0.312E-04    3.58      47.8  T
     SCC iter.                  ...        0 min,  0.010 sec
     gradient                   ...        0 min,  0.017 sec
 * total energy  :   -78.9224078 Eh     change       -0.2196197E-03 Eh
   gradient norm :     0.0103261 Eh/α   predicted    -0.1363056E-03 ( -37.94%)
   displ. norm   :     0.5322000 α      lambda       -0.7589246E-03
   maximum displ.:     0.3172422 α      in ANC's #12, #11, #10, ...

........................................................................
.............................. CYCLE   47 ..............................
........................................................................

 iter      E             dE          RMSdq      gap      omega  full diag
   1    -79.4630041 -0.794630E+02  0.108E-01    3.57       0.0  T
   2    -79.4630122 -0.817310E-05  0.658E-02    3.57       1.0  T
   3    -79.4630139 -0.165291E-05  0.744E-03    3.56       2.0  T
   4    -79.4630148 -0.894871E-06  0.302E-03    3.56       4.9  T
   5    -79.4630148 -0.491655E-07  0.108E-03    3.56      13.8  T
   6    -79.4630148 -0.244448E-08  0.424E-04    3.56      35.1  T
   7    -79.4630148 -0.158447E-08  0.106E-04    3.56     141.1  T
     SCC iter.                  ...        0 min,  0.014 sec
     gradient                   ...        0 min,  0.015 sec
 * total energy  :   -78.9229211 Eh     change       -0.5132840E-03 Eh
   gradient norm :     0.0130634 Eh/α   predicted    -0.4869406E-03 (  -5.13%)
   displ. norm   :     0.2085223 α      lambda       -0.4378605E-03
   maximum displ.:     0.1286711 α      in ANC's #12, #10, #15, ...

........................................................................
.............................. CYCLE   48 ..............................
........................................................................

 iter      E             dE          RMSdq      gap      omega  full diag
   1    -79.4678778 -0.794679E+02  0.455E-02    3.56       0.0  T
   2    -79.4678797 -0.190302E-05  0.272E-02    3.56       1.0  T
   3    -79.4678802 -0.450934E-06  0.346E-03    3.56       4.3  T
   4    -79.4678803 -0.102918E-06  0.151E-03    3.56       9.9  T
   5    -79.4678803 -0.188270E-07  0.584E-04    3.56      25.5  T
   6    -79.4678803 -0.661828E-09  0.262E-04    3.56      56.9  T
     SCC iter.                  ...        0 min,  0.012 sec
     gradient                   ...        0 min,  0.015 sec
 * total energy  :   -78.9231101 Eh     change       -0.1889602E-03 Eh
   gradient norm :     0.0084701 Eh/α   predicted    -0.2284532E-03 (  20.90%)
   displ. norm   :     0.2307009 α      lambda       -0.3879515E-03
   maximum displ.:     0.1285859 α      in ANC's #12, #17, #13, ...

........................................................................
.............................. CYCLE   49 ..............................
........................................................................

 iter      E             dE          RMSdq      gap      omega  full diag
   1    -79.4662002 -0.794662E+02  0.624E-02    3.56       0.0  T
   2    -79.4662034 -0.315715E-05  0.380E-02    3.56       1.0  T
   3    -79.4662045 -0.108056E-05  0.437E-03    3.55       3.4  T
   4    -79.4662046 -0.156501E-06  0.215E-03    3.55       6.9  T
   5    -79.4662047 -0.279341E-07  0.899E-04    3.55      16.6  T
   6    -79.4662047 -0.215772E-08  0.340E-04    3.55      43.9  T
     SCC iter.                  ...        0 min,  0.012 sec
     gradient                   ...        0 min,  0.015 sec
 * total energy  :   -78.9231378 Eh     change       -0.2771308E-04 Eh
   gradient norm :     0.0130777 Eh/α   predicted    -0.2043023E-03 ( 637.21%)
   displ. norm   :     0.2346322 α      lambda       -0.4064389E-03
   maximum displ.:     0.1342663 α      in ANC's #12, #11, #13, ...

........................................................................
.............................. CYCLE   50 ..............................
........................................................................

 iter      E             dE          RMSdq      gap      omega  full diag
   1    -79.4691505 -0.794692E+02  0.499E-02    3.56       0.0  T
   2    -79.4691549 -0.442760E-05  0.300E-02    3.56       1.0  T
   3    -79.4691555 -0.613397E-06  0.574E-03    3.56       2.6  T
   4    -79.4691558 -0.266386E-06  0.202E-03    3.56       7.4  T
   5    -79.4691558 -0.505728E-07  0.722E-04    3.56      20.6  T
   6    -79.4691558 -0.760878E-09  0.284E-04    3.56      52.5  T
     SCC iter.                  ...        0 min,  0.011 sec
     gradient                   ...        0 min,  0.017 sec
 * total energy  :   -78.9232584 Eh     change       -0.1206723E-03 Eh
   gradient norm :     0.0057587 Eh/α   predicted    -0.2144094E-03 (  77.68%)
   displ. norm   :     0.1108023 α      lambda       -0.1614904E-03
   maximum displ.:     0.0602551 α      in ANC's #12, #10, #6, ...

........................................................................
.............................. CYCLE   51 ..............................
........................................................................

 iter      E             dE          RMSdq      gap      omega  full diag
   1    -79.4674077 -0.794674E+02  0.327E-02    3.55       0.0  T
   2    -79.4674093 -0.159500E-05  0.196E-02    3.55       1.0  T
   3    -79.4674094 -0.134849E-06  0.358E-03    3.55       4.2  T
   4    -79.4674096 -0.154843E-06  0.114E-03    3.55      13.1  T
   5    -79.4674096 -0.975747E-08  0.368E-04    3.55      40.5  T
   6    -79.4674096 -0.216332E-09  0.150E-04    3.55      99.5  T
     SCC iter.                  ...        0 min,  0.012 sec
     gradient                   ...        0 min,  0.016 sec
 * total energy  :   -78.9233199 Eh     change       -0.6149919E-04 Eh
   gradient norm :     0.0045380 Eh/α   predicted    -0.8173546E-04 (  32.90%)
   displ. norm   :     0.0708188 α      lambda       -0.7216326E-04
   maximum displ.:     0.0341933 α      in ANC's #12, #17, #20, ...

........................................................................
.............................. CYCLE   52 ..............................
........................................................................

 iter      E             dE          RMSdq      gap      omega  full diag
   1    -79.4673293 -0.794673E+02  0.199E-02    3.55       0.0  T
   2    -79.4673295 -0.156372E-06  0.121E-02    3.55       1.2  T
   3    -79.4673295 -0.746589E-07  0.100E-03    3.55      14.8  T
   4    -79.4673295 -0.754649E-08  0.558E-04    3.55      26.7  T
   5    -79.4673295 -0.947765E-09  0.140E-04    3.55     106.5  T
     SCC iter.                  ...        0 min,  0.010 sec
     gradient                   ...        0 min,  0.015 sec
 * total energy  :   -78.9233706 Eh     change       -0.5064975E-04 Eh
   gradient norm :     0.0032488 Eh/α   predicted    -0.3626595E-04 ( -28.40%)
   displ. norm   :     0.1472113 α      lambda       -0.8515451E-04
   maximum displ.:     0.0586844 α      in ANC's #12, #17, #14, ...

........................................................................
.............................. CYCLE   53 ..............................
........................................................................

 iter      E             dE          RMSdq      gap      omega  full diag
   1    -79.4669343 -0.794669E+02  0.289E-02    3.54       0.0  T
   2    -79.4669347 -0.436342E-06  0.176E-02    3.54       1.0  T
   3    -79.4669349 -0.135225E-06  0.177E-03    3.54       8.4  T
   4    -79.4669349 -0.506372E-07  0.890E-04    3.54      16.8  T
   5    -79.4669349 -0.291156E-08  0.301E-04    3.54      49.5  T
     SCC iter.                  ...        0 min,  0.010 sec
     gradient                   ...        0 min,  0.016 sec
 * total energy  :   -78.9234192 Eh     change       -0.4855924E-04 Eh
   gradient norm :     0.0041029 Eh/α   predicted    -0.4350401E-04 ( -10.41%)
   displ. norm   :     0.1305174 α      lambda       -0.5921886E-04
   maximum displ.:     0.0465894 α      in ANC's #11, #12, #14, ...

........................................................................
.............................. CYCLE   54 ..............................
........................................................................

 iter      E             dE          RMSdq      gap      omega  full diag
   1    -79.4669951 -0.794670E+02  0.248E-02    3.53       0.0  T
   2    -79.4669954 -0.306373E-06  0.152E-02    3.53       1.0  T
   3    -79.4669955 -0.783055E-07  0.154E-03    3.53       9.7  T
   4    -79.4669955 -0.474377E-07  0.721E-04    3.53      20.7  T
   5    -79.4669955 -0.156680E-08  0.261E-04    3.53      57.0  T
     SCC iter.                  ...        0 min,  0.010 sec
     gradient                   ...        0 min,  0.016 sec
 * total energy  :   -78.9234628 Eh     change       -0.4361006E-04 Eh
   gradient norm :     0.0029763 Eh/α   predicted    -0.3011866E-04 ( -30.94%)
   displ. norm   :     0.1647918 α      lambda       -0.6193509E-04
   maximum displ.:     0.0714443 α      in ANC's #11, #3, #14, ...

........................................................................
.............................. CYCLE   55 ..............................
........................................................................

 iter      E             dE          RMSdq      gap      omega  full diag
   1    -79.4673540 -0.794674E+02  0.284E-02    3.53       0.0  T
   2    -79.4673546 -0.606404E-06  0.173E-02    3.53       1.0  T
   3    -79.4673547 -0.650296E-07  0.242E-03    3.52       6.2  T
   4    -79.4673548 -0.136511E-06  0.907E-04    3.52      16.4  T
   5    -79.4673548 -0.280428E-08  0.387E-04    3.53      38.5  T
     SCC iter.                  ...        0 min,  0.010 sec
     gradient                   ...        0 min,  0.016 sec
 * total energy  :   -78.9235021 Eh     change       -0.3930853E-04 Eh
   gradient norm :     0.0026502 Eh/α   predicted    -0.3181219E-04 ( -19.07%)
   displ. norm   :     0.1020533 α      lambda       -0.2362583E-04
   maximum displ.:     0.0405307 α      in ANC's #11, #12, #3, ...

........................................................................
.............................. CYCLE   56 ..............................
........................................................................

 iter      E             dE          RMSdq      gap      omega  full diag
   1    -79.4674250 -0.794674E+02  0.184E-02    3.52       0.0  T
   2    -79.4674253 -0.304618E-06  0.113E-02    3.52       1.3  T
   3    -79.4674253 -0.275692E-07  0.166E-03    3.52       9.0  T
   4    -79.4674254 -0.621421E-07  0.590E-04    3.52      25.3  T
   5    -79.4674254 -0.156261E-08  0.239E-04    3.52      62.5  T
     SCC iter.                  ...        0 min,  0.010 sec
     gradient                   ...        0 min,  0.015 sec
 * total energy  :   -78.9235188 Eh     change       -0.1677028E-04 Eh
   gradient norm :     0.0026672 Eh/α   predicted    -0.1194080E-04 ( -28.80%)
   displ. norm   :     0.1242932 α      lambda       -0.3061226E-04
   maximum displ.:     0.0618169 α      in ANC's #11, #12, #3, ...

........................................................................
.............................. CYCLE   57 ..............................
........................................................................

 iter      E             dE          RMSdq      gap      omega  full diag
   1    -79.4680602 -0.794681E+02  0.220E-02    3.53       0.0  T
   2    -79.4680607 -0.474739E-06  0.135E-02    3.52       1.1  T
   3    -79.4680607 -0.446557E-07  0.216E-03    3.52       6.9  T
   4    -79.4680609 -0.105584E-06  0.779E-04    3.52      19.1  T
   5    -79.4680609 -0.275210E-08  0.321E-04    3.52      46.4  T
     SCC iter.                  ...        0 min,  0.010 sec
     gradient                   ...        0 min,  0.015 sec
 * total energy  :   -78.9235378 Eh     change       -0.1893102E-04 Eh
   gradient norm :     0.0035951 Eh/α   predicted    -0.1554544E-04 ( -17.88%)
   displ. norm   :     0.1073865 α      lambda       -0.2292534E-04
   maximum displ.:     0.0505062 α      in ANC's #11, #12, #5, ...

........................................................................
.............................. CYCLE   58 ..............................
........................................................................

 iter      E             dE          RMSdq      gap      omega  full diag
   1    -79.4679720 -0.794680E+02  0.203E-02    3.52       0.0  T
   2    -79.4679722 -0.291230E-06  0.124E-02    3.52       1.2  T
   3    -79.4679723 -0.310606E-07  0.164E-03    3.52       9.1  T
   4    -79.4679723 -0.658266E-07  0.620E-04    3.52      24.1  T
   5    -79.4679723 -0.151843E-08  0.231E-04    3.52      64.6  T
     SCC iter.                  ...        0 min,  0.012 sec
     gradient                   ...        0 min,  0.017 sec
 * total energy  :   -78.9235554 Eh     change       -0.1764703E-04 Eh
   gradient norm :     0.0029080 Eh/α   predicted    -0.1159982E-04 ( -34.27%)
   displ. norm   :     0.1761061 α      lambda       -0.4192149E-04
   maximum displ.:     0.0907043 α      in ANC's #11, #12, #8, ...

........................................................................
.............................. CYCLE   59 ..............................
[...]
H18-C6-O11=123.04              H19-O7-C1=107.31               H20-O8-C2=107.12               H21-O9-C3=109.71               
H22-O10-C5=106.02              
 
 selected dihedral angles (degree)
 ---------------------------------
C3-C2-C1-O7=183.40            C3-C2-C1-H12= 60.83           C3-C2-C1-H13=301.55           O8-C2-C1-O7= 61.39            
O8-C2-C1-H12=298.82           O8-C2-C1-H13=179.54           H14-C2-C1-O7=302.93           H14-C2-C1-H12=180.36          
H14-C2-C1-H13= 61.09          C4-C3-C2-C1=190.55            C4-C3-C2-O8=310.18            C4-C3-C2-H14= 71.45           
O9-C3-C2-C1= 63.72            O9-C3-C2-O8=183.34            O9-C3-C2-H14=304.61           H15-C3-C2-C1=308.02           
H15-C3-C2-O8= 67.65           H15-C3-C2-H14=188.91          C5-C4-C3-C2=209.32            C5-C4-C3-O9=333.32            
C5-C4-C3-H15= 91.26           O16-C4-C3-C2=332.06           O16-C4-C3-O9= 96.07           O16-C4-C3-H15=214.01          
H23-C4-C3-C2= 89.44           H23-C4-C3-O9=213.44           H23-C4-C3-H15=331.38          C6-C5-C4-C3=197.98            
C6-C5-C4-O16= 73.69           C6-C5-C4-H23=317.52           O10-C5-C4-C3= 76.70           O10-C5-C4-O16=312.41          
O10-C5-C4-H23=196.24          H17-C5-C4-C3=315.70           H17-C5-C4-O16=191.41          H17-C5-C4-H23= 75.24          
O11-C6-C5-C4=232.90           O11-C6-C5-O10=353.26          O11-C6-C5-H17=113.71          H18-C6-C5-C4= 53.99           
H18-C6-C5-O10=174.35          H18-C6-C5-H17=294.80          H19-O7-C1-C2=308.99           H19-O7-C1-H12= 70.58          
H19-O7-C1-H13=189.43          H20-O8-C2-C1=188.12           H20-O8-C2-C3= 66.67           H20-O8-C2-H14=305.74          
H21-O9-C3-C2=100.96           H21-O9-C3-C4=336.38           H21-O9-C3-H15=217.89          H22-O10-C5-C4=134.83          
H22-O10-C5-C6= 12.47          H22-O10-C5-H17=254.67         
 
 CMA Distance (Angstroems)
 ---------------------------
R(CMA):  3.7705
           -------------------------------------------------
          |                Final Singlepoint                |
           -------------------------------------------------

          ...................................................
          :                      SETUP                      :
          :.................................................:
          :  # basis functions                 102          :
          :  # atomic orbitals                 102          :
          :  # shells                           64          :
          :  # electrons                       128          :
          :  max. iterations                   250          :
          :  Hamiltonian                  GFN2-xTB          :
          :  restarted?                      false          :
          :  GBSA solvation                  false          :
          :  PC potential                    false          :
          :  electronic temp.          300.0000000     K    :
          :  accuracy                    1.0000000          :
          :  -> integral cutoff          0.2500000E+02      :
          :  -> integral neglect         0.1000000E-07      :
          :  -> SCF convergence          0.1000000E-05 Eh   :
          :  -> wf. convergence          0.1000000E-03 e    :
          :  Broyden damping             0.4000000          :
          :  net charge                          0          :
          :  unpaired electrons                  0          :
          ...................................................

 iter      E             dE          RMSdq      gap      omega  full diag
   1    -79.4679335 -0.794679E+02  0.481E-05    3.51       0.0  T
   2    -79.4679335 -0.140830E-10  0.287E-05    3.51     520.1  T
   3    -79.4679335 -0.952127E-12  0.142E-05    3.51    1047.5  T

   *** convergence criteria satisfied after 3 iterations ***

         #    Occupation            Energy/Eh            Energy/eV
      -------------------------------------------------------------
         1        2.0000           -0.7383916             -20.0927
       ...           ...                  ...                  ...
        58        2.0000           -0.4429661             -12.0537
        59        2.0000           -0.4359386             -11.8625
        60        2.0000           -0.4347979             -11.8315
        61        2.0000           -0.4251741             -11.5696
        62        2.0000           -0.4153722             -11.3029
        63        2.0000           -0.4108962             -11.1811
        64        2.0000           -0.4087543             -11.1228 (HOMO)
        65                         -0.2796530              -7.6097 (LUMO)
        66                         -0.0298241              -0.8116
        67                         -0.0176402              -0.4800
        68                         -0.0074319              -0.2022
        69                          0.0184830               0.5029
       ...                                ...                  ...
       102                          0.5854312              15.9304
      -------------------------------------------------------------
                  HL-Gap            0.1291013 Eh            3.5130 eV
             Fermi-level           -0.3442037 Eh           -9.3663 eV

 SCC (total)                   0 d,  0 h,  0 min,  0.030 sec
 SCC setup                      ...        0 min,  0.002 sec (  6.008%)
 Dispersion                     ...        0 min,  0.000 sec (  1.218%)
 classical contributions        ...        0 min,  0.000 sec (  0.313%)
 integral evaluation            ...        0 min,  0.005 sec ( 15.277%)
 iterations                     ...        0 min,  0.006 sec ( 21.248%)
 molecular gradient             ...        0 min,  0.015 sec ( 50.540%)
 printout                       ...        0 min,  0.002 sec (  5.273%)

         :::::::::::::::::::::::::::::::::::::::::::::::::::::
         ::                     SUMMARY                     ::
         :::::::::::::::::::::::::::::::::::::::::::::::::::::
         :: total energy             -78.923798446895 Eh    ::
         :: gradient norm              0.000344628684 Eh/a0 ::
         :: HOMO-LUMO gap              3.513025560642 eV    ::
         ::.................................................::
         :: SCC energy               -79.466310316068 Eh    ::
         :: -> isotropic ES            0.350966878789 Eh    ::
         :: -> anisotropic ES         -0.041795969728 Eh    ::
         :: -> anisotropic XC         -0.010144712671 Eh    ::
         :: -> dispersion             -0.035014093177 Eh    ::
         :: repulsion energy           0.542511869173 Eh    ::
         :: add. restraining           0.000000000000 Eh    ::
         :: total charge              -0.000000000000 e     ::
         :::::::::::::::::::::::::::::::::::::::::::::::::::::

           -------------------------------------------------
          |                Property Printout                |
           -------------------------------------------------

    * Orbital Energies and Occupations

         #    Occupation            Energy/Eh            Energy/eV
      -------------------------------------------------------------
         1        2.0000           -0.7383916             -20.0927
       ...           ...                  ...                  ...
        52        2.0000           -0.4599686             -12.5164
        53        2.0000           -0.4579017             -12.4601
        54        2.0000           -0.4561515             -12.4125
        55        2.0000           -0.4538751             -12.3506
        56        2.0000           -0.4488861             -12.2148
        57        2.0000           -0.4481700             -12.1953
        58        2.0000           -0.4429661             -12.0537
        59        2.0000           -0.4359386             -11.8625
        60        2.0000           -0.4347979             -11.8315
        61        2.0000           -0.4251741             -11.5696
        62        2.0000           -0.4153722             -11.3029
        63        2.0000           -0.4108962             -11.1811
        64        2.0000           -0.4087543             -11.1228 (HOMO)
        65                         -0.2796530              -7.6097 (LUMO)
        66                         -0.0298241              -0.8116
        67                         -0.0176402              -0.4800
        68                         -0.0074319              -0.2022
        69                          0.0184830               0.5029
        70                          0.0340840               0.9275
        71                          0.0435714               1.1856
        72                          0.0509083               1.3853
        73                          0.0569750               1.5504
        74                          0.0647200               1.7611
        75                          0.0768139               2.0902
       ...                                ...                  ...
       102                          0.5854312              15.9304
      -------------------------------------------------------------
                  HL-Gap            0.1291013 Eh            3.5130 eV
             Fermi-level           -0.3442037 Eh           -9.3663 eV

     #   Z          covCN         q      C6AA      α(0)
     1   6 C        3.676     0.063    19.739     6.365
     2   6 C        3.723     0.093    19.152     6.250
     3   6 C        3.723     0.071    19.501     6.306
     4   6 C        3.725     0.084    19.289     6.271
     5   6 C        3.724     0.059    19.691     6.336
     6   6 C        2.759     0.195    23.831     7.994
     7   8 O        1.656    -0.438    21.593     6.273
     8   8 O        1.655    -0.465    22.161     6.355
     9   8 O        1.655    -0.464    22.127     6.350
    10   8 O        1.654    -0.459    22.030     6.336
    11   8 O        0.857    -0.328    20.296     6.040
    12   1 H        0.923     0.046     2.376     2.410
    13   1 H        0.924     0.064     2.154     2.295
    14   1 H        0.923     0.040     2.451     2.448
    15   1 H        0.924     0.066     2.133     2.284
    16   8 O        1.655    -0.458    22.000     6.332
    17   1 H        0.921     0.128     1.553     1.949
    18   1 H        0.923     0.041     2.430     2.438
    19   1 H        0.805     0.303     0.712     1.325
    20   1 H        0.805     0.321     0.661     1.277
    21   1 H        0.805     0.329     0.640     1.256
    22   1 H        0.804     0.321     0.661     1.277
    23   1 H        0.924     0.075     2.028     2.227
    24   1 H        0.804     0.315     0.676     1.292
    25   8 O        1.607    -0.619    25.655     6.836
    26   1 H        0.806     0.286     0.765     1.374
    27   1 H        0.802     0.335     0.624     1.241
    28   8 O        1.608    -0.634    26.024     6.885
    29   1 H        0.804     0.301     0.718     1.331
    30   1 H        0.804     0.311     0.688     1.303
    31   8 O        1.606    -0.630    25.928     6.872
    32   1 H        0.801     0.337     0.620     1.237
    33   1 H        0.806     0.283     0.776     1.383
    34   8 O        1.609    -0.605    25.315     6.791
    35   1 H        0.805     0.309     0.694     1.308
    36   1 H        0.804     0.327     0.645     1.261
    37   8 O        1.609    -0.619    25.645     6.835
    38   1 H        0.804     0.309     0.694     1.308
    39   1 H        0.805     0.310     0.692     1.307
    40   8 O        1.606    -0.631    25.940     6.874
    41   1 H        0.801     0.338     0.616     1.234
    42   1 H        0.806     0.285     0.767     1.376
    43   8 O        1.609    -0.627    25.839     6.861
    44   1 H        0.804     0.319     0.667     1.283
    45   1 H        0.804     0.313     0.684     1.299

 Mol. C6AA /au·bohr⁶  :      13460.225259
 Mol. C8AA /au·bohr⁸  :     269224.205750
 Mol. α(0) /au        :        165.886912


Wiberg/Mayer (AO) data.
largest (>0.10) Wiberg bond orders for each atom

 ---------------------------------------------------------------------------
     #   Z sym  total        # sym  WBO       # sym  WBO       # sym  WBO
 ---------------------------------------------------------------------------
     1   6 C    3.958 --     7 O    1.010     2 C    0.981    13 H    0.969
                            12 H    0.961
     2   6 C    3.949 --     1 C    0.981     8 O    0.981    14 H    0.961
                             3 C    0.959
     3   6 C    3.955 --     9 O    0.998     2 C    0.959     4 C    0.956
                            15 H    0.954
     4   6 C    3.954 --    16 O    0.999     3 C    0.956    23 H    0.952
                             5 C    0.946
     5   6 C    3.950 --     6 C    1.008    10 O    0.992     4 C    0.946
                            17 H    0.873
     6   6 C    3.914 --    11 O    1.894     5 C    1.008    18 H    0.934
     7   8 O    1.962 --     1 C    1.010    19 H    0.891
     8   8 O    1.982 --     2 C    0.981    20 H    0.869
     9   8 O    1.968 --     3 C    0.998    21 H    0.857
    10   8 O    1.971 --     5 C    0.992    22 H    0.858
    11   8 O    2.104 --     6 C    1.894
    12   1 H    0.998 --     1 C    0.961
    13   1 H    0.996 --     1 C    0.969
    14   1 H    0.998 --     2 C    0.961
    15   1 H    0.996 --     3 C    0.954
    16   8 O    1.971 --     4 C    0.999    24 H    0.871
    17   1 H    0.984 --     5 C    0.873
    18   1 H    0.998 --     6 C    0.934
    19   1 H    0.908 --     7 O    0.891
    20   1 H    0.897 --     8 O    0.869
    21   1 H    0.892 --     9 O    0.857
    22   1 H    0.897 --    10 O    0.858
    23   1 H    0.994 --     4 C    0.952
    24   1 H    0.900 --    16 O    0.871
    25   8 O    1.870 --    26 H    0.912    27 H    0.812
    26   1 H    0.918 --    25 O    0.912
    27   1 H    0.888 --    25 O    0.812
    28   8 O    1.843 --    29 H    0.871    30 H    0.860
    29   1 H    0.909 --    28 O    0.871
    30   1 H    0.903 --    28 O    0.860
    31   8 O    1.866 --    33 H    0.916    32 H    0.792
    32   1 H    0.886 --    31 O    0.792
    33   1 H    0.920 --    31 O    0.916
    34   8 O    1.900 --    35 H    0.898    36 H    0.849
    35   1 H    0.904 --    34 O    0.898
    36   1 H    0.893 --    34 O    0.849
    37   8 O    1.850 --    39 H    0.881    38 H    0.872
    38   1 H    0.904 --    37 O    0.872
    39   1 H    0.904 --    37 O    0.881
    40   8 O    1.865 --    42 H    0.914    41 H    0.797
    41   1 H    0.885 --    40 O    0.797
    42   1 H    0.919 --    40 O    0.914
    43   8 O    1.891 --    45 H    0.861    44 H    0.846
    44   1 H    0.898 --    43 O    0.846
    45   1 H    0.902 --    43 O    0.861
 ---------------------------------------------------------------------------

Topologies differ in total number of bonds
Writing topology from bond orders to xtbtopo.mol

molecular dipole:
                 x           y           z       tot (Debye)
 q only:        0.172       0.619      -0.793
   full:       -0.194       1.086      -0.857       3.551
molecular quadrupole (traceless):
                xx          xy          yy          xz          yz          zz
 q only:      -12.919      -2.209      -3.258       2.527      -6.248      16.177
  q+dip:      -14.993      -4.384      -6.224       3.948      -9.354      21.217
   full:      -14.995      -3.784      -5.338       4.210      -9.433      20.334

           -------------------------------------------------
          |                Geometry Summary                 |
           -------------------------------------------------

      molecular mass/u    :      306.2631389
   center of mass at/Å    :        0.0079121      -0.2342440      -1.5957360
  moments of inertia/u·Å² :        0.1741838E+04   0.1969022E+04   0.2633461E+04
rotational constants/cm⁻¹ :        0.9678073E-02   0.8561426E-02   0.6401321E-02

 * 33 selected distances

     #   Z          #   Z                                           value/Å
     1   6 C        2   6 C                                       1.5324335 (max)
     1   6 C        7   8 O                                       1.4021537
     2   6 C        8   8 O                                       1.4177081
     3   6 C        9   8 O                                       1.4096873
     5   6 C       10   8 O                                       1.4168073
     6   6 C       11   8 O                                       1.2031492
     1   6 C       12   1 H                                       1.0982148
     1   6 C       13   1 H                                       1.0906404
     2   6 C       14   1 H                                       1.0985118
     3   6 C       15   1 H                                       1.0962764
     4   6 C       16   8 O                                       1.4098244
     5   6 C       17   1 H                                       1.1107293
     6   6 C       18   1 H                                       1.0997642
     7   8 O       19   1 H                                       0.9651845
     8   8 O       20   1 H                                       0.9670857
     9   8 O       21   1 H                                       0.9673371
    10   8 O       22   1 H                                       0.9724590
     4   6 C       23   1 H                                       1.0939131
    16   8 O       24   1 H                                       0.9695676
    25   8 O       26   1 H                                       0.9576789 (min)
    25   8 O       27   1 H                                       0.9865726
    28   8 O       29   1 H                                       0.9683051
    28   8 O       30   1 H                                       0.9722443
    31   8 O       32   1 H                                       0.9961876
    31   8 O       33   1 H                                       0.9585873
    34   8 O       35   1 H                                       0.9629036
    34   8 O       36   1 H                                       0.9734386
    37   8 O       38   1 H                                       0.9679725
    37   8 O       39   1 H                                       0.9660889
    40   8 O       41   1 H                                       0.9933549
    40   8 O       42   1 H                                       0.9585673
    43   8 O       44   1 H                                       0.9755169
    43   8 O       45   1 H                                       0.9718078

 * 4 distinct bonds (by element types)

   Z      Z             #   av. dist./Å        max./Å        min./Å
   1 H    6 C           7     1.0982929     1.1107293     1.0906404
   6 C    6 C           1     1.5324335     1.5324335     1.5324335
   1 H    8 O          19     0.9710979     0.9961876     0.9576789
   6 C    8 O           6     1.3765550     1.4177081     1.2031492


optimized geometry written to: xtbopt.xyz


           -------------------------------------------------
          | TOTAL ENERGY              -78.923798446895 Eh   |
          | GRADIENT NORM               0.000344628684 Eh/α |
          | HOMO-LUMO GAP               3.513025560642 eV   |
           -------------------------------------------------

------------------------------------------------------------------------
 * finished run on 2024/12/07 at 05:51:11.126     
------------------------------------------------------------------------
 total:
 * wall-time:     0 d,  0 h,  0 min,  3.038 sec
 *  cpu-time:     0 d,  0 h,  0 min,  5.769 sec
 * ratio c/w:     1.899 speedup
 SCF:
 * wall-time:     0 d,  0 h,  0 min,  0.049 sec
 *  cpu-time:     0 d,  0 h,  0 min,  0.094 sec
 * ratio c/w:     1.910 speedup
 ANC optimizer:
 * wall-time:     0 d,  0 h,  0 min,  2.964 sec
 *  cpu-time:     0 d,  0 h,  0 min,  5.636 sec
 * ratio c/w:     1.901 speedup

